Test gro file
12
    1ALA      O    1   0.000   0.000   0.000
    2SOL     OW    2   0.300   0.000   0.000
    2SOL    HW1    3   0.200   0.000   0.000
    2SOL    HW2    4   0.400   0.000   0.000
    4ALA      O    5   0.600   0.000   0.000
    5ALA      O    6   0.000   1.000   0.000
    6SOL     OW    7   0.300   1.000   0.000
    6SOL    HW1    8   0.200   1.000   0.000
    6SOL    HW2    9   0.400   1.000   0.000
    7SOL     OW   10   0.600   1.000   0.000
    7SOL    HW1   11   0.700   1.000   0.000
    8ALA      O   12   0.900   1.000   0.000
  1.0   1.0   1.0