Test gro file
9
    1ALA      O    1   0.000   0.000   0.000
    2SOL     OW    2   0.300   0.000   0.000
    2SOL    HW1    3   0.200   0.000   0.000
    2SOL    HW2    4   0.400   0.000   0.000
    3SOL     OW    5   0.600   0.000   0.000
    3SOL    HW1    6   0.700   0.000   0.000
    4SOL     OW    7   0.900   0.000   0.000
    4SOL    HW1    8   1.000   0.000   0.000
    5ALA      O    9   1.200   0.000   0.000
  10.0   10.0   10.0