Test gro file
9
    1ALA      O    1   0.000   0.000   0.000
    2SOL     OW    2   0.300   0.000   0.000
    2SOL    HW1    3   0.200   0.000   0.000
    2SOL    HW2    4   0.400   0.000   0.000
    3SOL     OW    5   0.600   0.000   0.000
    3SOL    HW1    6   0.700   0.000   0.000
    3SOL    HW2    7   0.600   0.100   0.000
    4ALA      O    8   0.900   0.000   0.000
    5ALA      O    9   0.600   0.300   0.000
  1.0   1.0   1.0