Test gro file
    7
    1LEU      O    1   1.876   0.810   1.354
  117SOL    HW1    2   1.853   0.831   1.162
  117SOL     OW    3   1.877   0.890   1.081
  117SOL    HW2    4   1.908   0.828   1.007
  135SOL     OW    5   1.924   0.713   0.845
    1LEU      H    6   1.997   0.991   1.194
    1LEU      N    7   2.041   1.030   1.274
   2.22092   2.22092   2.22092