Test gro file
 13
    1ALA      O    1   0.000   0.000   0.000
    1ALA      H    2   0.000   0.000   0.000
    2SOL     OW    3   0.300   0.000   0.000
    2SOL    HW1    4   0.200   0.000   0.000
    2SOL    HW2    5   0.400   0.000   0.000
    3SOL     OW    6   0.600   0.000   0.000
    3SOL    HW1    7   0.700   0.000   0.000
    4SOL     OW    8   0.900   0.000   0.000
    4SOL    HW1    9   1.000   0.000   0.000
    5SOL     OW   10   1.200   0.000   0.000
    5SOL    HW1   11   1.300   0.000   0.000
    6ALA      H   12   1.400   0.000   0.000
    6ALA      O   13   1.400   0.000   0.000
   10.0   10.0   10.0